Program Version,EnergyPlus, Version 25.1.0-1c11a3d85f, YMD=2026.02.24 14:06
1,5,Environment Title[],Latitude[deg],Longitude[deg],Time Zone[],Elevation[m]
2,8,Day of Simulation[],Month[],Day of Month[],DST Indicator[1=yes 0=no],Hour[],StartMinute[],EndMinute[],DayType
3,5,Cumulative Day of Simulation[],Month[],Day of Month[],DST Indicator[1=yes 0=no],DayType  ! When Daily Meters Requested
4,2,Cumulative Days of Simulation[],Month[]  ! When Monthly Meters Requested
5,1,Cumulative Days of Simulation[] ! When Run Period Meters Requested
6,1,Calendar Year of Simulation[] ! When Annual Meters Requested
135,1,Electricity:Facility [J] !Hourly
3507,1,ElectricityNet:Facility [J] !Hourly
End of Data Dictionary
1,RUNPERIOD 1,  40.65, -73.80,  -5.00,   5.00
2,1, 1, 1, 0, 1, 0.00,60.00,Holiday
135,193939955.9510885
3507,193939955.9510885
2,1, 1, 1, 0, 2, 0.00,60.00,Holiday
135,169412929.96107322
3507,169412929.96107322
2,1, 1, 1, 0, 3, 0.00,60.00,Holiday
135,171820217.7577835
3507,171820217.75778353
2,1, 1, 1, 0, 4, 0.00,60.00,Holiday
135,154174108.24848834
3507,154174108.24848837
2,1, 1, 1, 0, 5, 0.00,60.00,Holiday
135,194203303.2219435
3507,194203303.2219435
2,1, 1, 1, 0, 6, 0.00,60.00,Holiday
135,170998244.7325556
3507,170998244.7325556
2,1, 1, 1, 0, 7, 0.00,60.00,Holiday
135,183399354.08180857
3507,183399354.0818085
2,1, 1, 1, 0, 8, 0.00,60.00,Holiday
135,152671719.07879454
3507,151348719.07555747
2,1, 1, 1, 0, 9, 0.00,60.00,Holiday
135,136086359.84591338
3507,124070717.00273278
2,1, 1, 1, 0,10, 0.00,60.00,Holiday
135,104203857.34924275
3507,78350205.70526986
2,1, 1, 1, 0,11, 0.00,60.00,Holiday
135,104121859.87337412
3507,70872217.99346593
2,1, 1, 1, 0,12, 0.00,60.00,Holiday
135,91981345.14520681
3507,61315837.64309604
2,1, 1, 1, 0,13, 0.00,60.00,Holiday
135,101642790.7862055
3507,67545676.83006266
2,1, 1, 1, 0,14, 0.00,60.00,Holiday
135,95882472.12339717
3507,83010899.81484751
2,1, 1, 1, 0,15, 0.00,60.00,Holiday
135,103797538.54882339
3507,86260574.8703495
2,1, 1, 1, 0,16, 0.00,60.00,Holiday
135,102198171.83222574
3507,95405563.85202833
2,1, 1, 1, 0,17, 0.00,60.00,Holiday
135,144671622.53247902
3507,144152575.5662572
2,1, 1, 1, 0,18, 0.00,60.00,Holiday
135,157209346.2977328
3507,157209346.2977328
2,1, 1, 1, 0,19, 0.00,60.00,Holiday
135,210195143.85347
3507,210195143.85347
2,1, 1, 1, 0,20, 0.00,60.00,Holiday
135,178433966.37776598
3507,178433966.37776598
2,1, 1, 1, 0,21, 0.00,60.00,Holiday
135,229392431.25476378
3507,229392431.25476378
2,1, 1, 1, 0,22, 0.00,60.00,Holiday
135,189698475.60705262
3507,189698475.6070526
2,1, 1, 1, 0,23, 0.00,60.00,Holiday
135,233124795.4005385
3507,233124795.4005385
2,1, 1, 1, 0,24, 0.00,60.00,Holiday
135,208981676.53580174
3507,208981676.53580177
2,2, 1, 2, 0, 1, 0.00,60.00,Monday
135,256572315.29178667
3507,256572315.29178667
2,2, 1, 2, 0, 2, 0.00,60.00,Monday
135,203007459.69094968
3507,203007459.6909497
2,2, 1, 2, 0, 3, 0.00,60.00,Monday
135,216431693.51787362
3507,216431693.5178736
2,2, 1, 2, 0, 4, 0.00,60.00,Monday
135,185074479.48906678
3507,185074479.48906678
2,2, 1, 2, 0, 5, 0.00,60.00,Monday
135,224625219.58804107
3507,224625219.58804107
2,2, 1, 2, 0, 6, 0.00,60.00,Monday
135,404036824.4821919
3507,404036824.4821919
2,2, 1, 2, 0, 7, 0.00,60.00,Monday
135,806355851.4150702
3507,806355851.4150703
2,2, 1, 2, 0, 8, 0.00,60.00,Monday
135,840171194.7297107
3507,838255551.6999124
2,2, 1, 2, 0, 9, 0.00,60.00,Monday
135,735529620.8633224
3507,721773536.8593919
2,2, 1, 2, 0,10, 0.00,60.00,Monday
135,638005479.8269955
3507,616522463.8006566
2,2, 1, 2, 0,11, 0.00,60.00,Monday
135,547913781.4877536
3507,515812240.6355505
2,2, 1, 2, 0,12, 0.00,60.00,Monday
135,493221295.6866722
3507,455586778.5707725
2,2, 1, 2, 0,13, 0.00,60.00,Monday
135,496880481.64817417
3507,463703756.67816633
2,2, 1, 2, 0,14, 0.00,60.00,Monday
135,453518052.5722391
3507,431764263.86193395
2,2, 1, 2, 0,15, 0.00,60.00,Monday
135,449845150.49358463
3507,439897183.2889933
2,2, 1, 2, 0,16, 0.00,60.00,Monday
135,438073103.90458083
3507,431708720.9537361
2,2, 1, 2, 0,17, 0.00,60.00,Monday
135,453809272.3788101
3507,453288412.0383414
2,2, 1, 2, 0,18, 0.00,60.00,Monday
135,476366713.5891135
3507,476366713.5891134
2,2, 1, 2, 0,19, 0.00,60.00,Monday
135,470854291.0498817
3507,470854291.0498817
2,2, 1, 2, 0,20, 0.00,60.00,Monday
135,448461537.0232599
3507,448461537.0232599
2,2, 1, 2, 0,21, 0.00,60.00,Monday
135,437294546.18505424
3507,437294546.1850543
2,2, 1, 2, 0,22, 0.00,60.00,Monday
135,429703638.5388365
3507,429703638.53883636
2,2, 1, 2, 0,23, 0.00,60.00,Monday
135,75193223.90247798
3507,75193223.90247798
2,2, 1, 2, 0,24, 0.00,60.00,Monday
135,71656468.08834744
3507,71656468.08834744
2,3, 1, 3, 0, 1, 0.00,60.00,Tuesday
135,58379131.21819277
3507,58379131.21819277
2,3, 1, 3, 0, 2, 0.00,60.00,Tuesday
135,64370294.6411323
3507,64370294.64113231
2,3, 1, 3, 0, 3, 0.00,60.00,Tuesday
135,64581734.277224645
3507,64581734.277224645
2,3, 1, 3, 0, 4, 0.00,60.00,Tuesday
135,69969829.1110978
3507,69969829.1110978
2,3, 1, 3, 0, 5, 0.00,60.00,Tuesday
135,72048635.71232887
3507,72048635.71232887
2,3, 1, 3, 0, 6, 0.00,60.00,Tuesday
135,71444520.64645988
3507,71444520.64645988
2,3, 1, 3, 0, 7, 0.00,60.00,Tuesday
135,417221499.05182195
3507,417221499.0518218
2,3, 1, 3, 0, 8, 0.00,60.00,Tuesday
135,551246281.3712165
3507,551035234.2961112
2,3, 1, 3, 0, 9, 0.00,60.00,Tuesday
135,442417752.35167885
3507,440058823.1826447
2,3, 1, 3, 0,10, 0.00,60.00,Tuesday
135,380558630.1899028
3507,375953771.65420616
2,3, 1, 3, 0,11, 0.00,60.00,Tuesday
135,336282090.04666126
3507,330180563.146408
2,3, 1, 3, 0,12, 0.00,60.00,Tuesday
135,312622209.55960184
3507,305907649.70399785
2,3, 1, 3, 0,13, 0.00,60.00,Tuesday
135,343712658.1257328
3507,336475340.95131594
2,3, 1, 3, 0,14, 0.00,60.00,Tuesday
135,294367524.0000453
3507,288503668.5604801
2,3, 1, 3, 0,15, 0.00,60.00,Tuesday
135,279073524.25883406
3507,274723266.7490191
2,3, 1, 3, 0,16, 0.00,60.00,Tuesday
135,266333721.7530794
3507,262186436.47528467
2,3, 1, 3, 0,17, 0.00,60.00,Tuesday
135,288828019.8686895
3507,288463902.9664778
2,3, 1, 3, 0,18, 0.00,60.00,Tuesday
135,309386828.17438424
3507,309386828.17438424
2,3, 1, 3, 0,19, 0.00,60.00,Tuesday
135,283391878.0893276
3507,283391878.08932763
2,3, 1, 3, 0,20, 0.00,60.00,Tuesday
135,269346687.2496686
3507,269346687.2496686
2,3, 1, 3, 0,21, 0.00,60.00,Tuesday
135,267594211.3007781
3507,267594211.3007781
2,3, 1, 3, 0,22, 0.00,60.00,Tuesday
135,273319803.4645164
3507,273319803.46451634
2,3, 1, 3, 0,23, 0.00,60.00,Tuesday
135,75193223.90247798
3507,75193223.90247798
2,3, 1, 3, 0,24, 0.00,60.00,Tuesday
135,71656468.08834744
3507,71656468.08834744
2,4, 1, 4, 0, 1, 0.00,60.00,Wednesday
135,58379131.21819277
3507,58379131.21819277
2,4, 1, 4, 0, 2, 0.00,60.00,Wednesday
135,58379131.21819277
3507,58379131.21819277
2,4, 1, 4, 0, 3, 0.00,60.00,Wednesday
135,58379131.21819277
3507,58379131.21819277
2,4, 1, 4, 0, 4, 0.00,60.00,Wednesday
135,58379131.21819277
3507,58379131.21819277
2,4, 1, 4, 0, 5, 0.00,60.00,Wednesday
135,65162839.43533439
3507,65162839.43533439
2,4, 1, 4, 0, 6, 0.00,60.00,Wednesday
135,180106672.10303122
3507,180106672.10303122
2,4, 1, 4, 0, 7, 0.00,60.00,Wednesday
135,388304031.0207687
3507,388304031.0207687
2,4, 1, 4, 0, 8, 0.00,60.00,Wednesday
135,477167440.49964947
3507,475812371.846437
2,4, 1, 4, 0, 9, 0.00,60.00,Wednesday
135,381122111.20672745
3507,369847154.6391447
2,4, 1, 4, 0,10, 0.00,60.00,Wednesday
135,293245251.4484447
3507,265963561.11888885
2,4, 1, 4, 0,11, 0.00,60.00,Wednesday
135,263262389.49867123
3507,225898464.9334854
2,4, 1, 4, 0,12, 0.00,60.00,Wednesday
135,257905025.82806492
3507,219337747.49509948
2,4, 1, 4, 0,13, 0.00,60.00,Wednesday
135,285578295.0803263
3507,251447116.15400636
2,4, 1, 4, 0,14, 0.00,60.00,Wednesday
135,243406339.95564002
3507,208314912.31406593
2,4, 1, 4, 0,15, 0.00,60.00,Wednesday
135,230588135.44732016
3507,206767403.22390014
2,4, 1, 4, 0,16, 0.00,60.00,Wednesday
135,236769262.49325648
3507,227320512.79373068
2,4, 1, 4, 0,17, 0.00,60.00,Wednesday
135,269523795.5023732
3507,268928976.2688843
2,4, 1, 4, 0,18, 0.00,60.00,Wednesday
135,279999480.6719633
3507,279999480.6719633
2,4, 1, 4, 0,19, 0.00,60.00,Wednesday
135,268690063.5332819
3507,268690063.533282
2,4, 1, 4, 0,20, 0.00,60.00,Wednesday
135,259809968.14811248
3507,259809968.14811242
2,4, 1, 4, 0,21, 0.00,60.00,Wednesday
135,264855798.11559543
3507,264855798.11559534
2,4, 1, 4, 0,22, 0.00,60.00,Wednesday
135,273913442.30620164
3507,273913442.3062016
2,4, 1, 4, 0,23, 0.00,60.00,Wednesday
135,75193223.90247798
3507,75193223.90247798
2,4, 1, 4, 0,24, 0.00,60.00,Wednesday
135,71656468.08834744
3507,71656468.08834744
2,5, 1, 5, 0, 1, 0.00,60.00,Thursday
135,58379131.21819277
3507,58379131.21819277
2,5, 1, 5, 0, 2, 0.00,60.00,Thursday
135,61155891.009126425
3507,61155891.009126425
2,5, 1, 5, 0, 3, 0.00,60.00,Thursday
135,66178206.684680715
3507,66178206.684680715
2,5, 1, 5, 0, 4, 0.00,60.00,Thursday
135,68313046.3383539
3507,68313046.3383539
2,5, 1, 5, 0, 5, 0.00,60.00,Thursday
135,74054491.41953582
3507,74054491.41953582
2,5, 1, 5, 0, 6, 0.00,60.00,Thursday
135,169308706.68640748
3507,169308706.68640748
2,5, 1, 5, 0, 7, 0.00,60.00,Thursday
135,383232295.52488816
3507,383232295.52488816
2,5, 1, 5, 0, 8, 0.00,60.00,Thursday
135,455653624.3201031
3507,454365664.3027474
2,5, 1, 5, 0, 9, 0.00,60.00,Thursday
135,352978209.35017675
3507,340374256.30333024
2,5, 1, 5, 0,10, 0.00,60.00,Thursday
135,284554375.8653086
3507,258222681.0542422
2,5, 1, 5, 0,11, 0.00,60.00,Thursday
135,257574823.16763026
3507,220306902.64749986
2,5, 1, 5, 0,12, 0.00,60.00,Thursday
135,248399162.40963233
3507,204954168.49289557
2,5, 1, 5, 0,13, 0.00,60.00,Thursday
135,277457689.5886124
3507,235688001.80337495
2,5, 1, 5, 0,14, 0.00,60.00,Thursday
135,231781039.61038265
3507,197067163.47038722
2,5, 1, 5, 0,15, 0.00,60.00,Thursday
135,221618398.45413774
3507,198311555.2887715
2,5, 1, 5, 0,16, 0.00,60.00,Thursday
135,225543751.18938488
3507,215743221.00020102
2,5, 1, 5, 0,17, 0.00,60.00,Thursday
135,257826127.62943813
3507,257282348.2190481
2,5, 1, 5, 0,18, 0.00,60.00,Thursday
135,255739510.15849707
3507,255739510.15849704
2,5, 1, 5, 0,19, 0.00,60.00,Thursday
135,234105529.7455997
3507,234105529.7455997
2,5, 1, 5, 0,20, 0.00,60.00,Thursday
135,225913904.34250185
3507,225913904.34250185
2,5, 1, 5, 0,21, 0.00,60.00,Thursday
135,223431080.9699489
3507,223431080.96994892
2,5, 1, 5, 0,22, 0.00,60.00,Thursday
135,231515576.46292245
3507,231515576.46292248
2,5, 1, 5, 0,23, 0.00,60.00,Thursday
135,75193223.90247798
3507,75193223.90247798
2,5, 1, 5, 0,24, 0.00,60.00,Thursday
135,71656468.08834744
3507,71656468.08834744
2,6, 1, 6, 0, 1, 0.00,60.00,Friday
135,58379131.21819277
3507,58379131.21819277
2,6, 1, 6, 0, 2, 0.00,60.00,Friday
135,58379131.21819277
3507,58379131.21819277
2,6, 1, 6, 0, 3, 0.00,60.00,Friday
135,58379131.21819277
3507,58379131.21819277
2,6, 1, 6, 0, 4, 0.00,60.00,Friday
135,58379131.21819277
3507,58379131.21819277
2,6, 1, 6, 0, 5, 0.00,60.00,Friday
135,58379131.21819277
3507,58379131.21819277
2,6, 1, 6, 0, 6, 0.00,60.00,Friday
135,136565069.30566773
3507,136565069.30566773
2,6, 1, 6, 0, 7, 0.00,60.00,Friday
135,325318181.0616869
3507,325318181.0616869
2,6, 1, 6, 0, 8, 0.00,60.00,Friday
135,408191100.47271836
3507,406821186.3334907
2,6, 1, 6, 0, 9, 0.00,60.00,Friday
135,332843107.0146928
3507,320612233.55415213
2,6, 1, 6, 0,10, 0.00,60.00,Friday
135,268938147.3289063
3507,242767588.93897465
2,6, 1, 6, 0,11, 0.00,60.00,Friday
135,246459524.12501764
3507,213345080.33687836
2,6, 1, 6, 0,12, 0.00,60.00,Friday
135,247177885.51919013
3507,222357043.66523117
2,6, 1, 6, 0,13, 0.00,60.00,Friday
135,282444967.9402254
3507,266326303.93488628
2,6, 1, 6, 0,14, 0.00,60.00,Friday
135,266861074.36272308
3507,256654603.81284738
2,6, 1, 6, 0,15, 0.00,60.00,Friday
135,263832169.81901717
3507,258195643.3753535
2,6, 1, 6, 0,16, 0.00,60.00,Friday
135,265967500.40746874
3507,261749044.2849699
2,6, 1, 6, 0,17, 0.00,60.00,Friday
135,282065947.6122282
3507,281536020.86245304
2,6, 1, 6, 0,18, 0.00,60.00,Friday
135,280759662.0672444
3507,280759662.06724435
2,6, 1, 6, 0,19, 0.00,60.00,Friday
135,251005426.11424655
3507,251005426.11424655
2,6, 1, 6, 0,20, 0.00,60.00,Friday
135,238991297.54521918
3507,238991297.54521918
2,6, 1, 6, 0,21, 0.00,60.00,Friday
135,235962347.54400912
3507,235962347.54400915
2,6, 1, 6, 0,22, 0.00,60.00,Friday
135,237718825.73922285
3507,237718825.73922282
2,6, 1, 6, 0,23, 0.00,60.00,Friday
135,75193223.90247798
3507,75193223.90247798
2,6, 1, 6, 0,24, 0.00,60.00,Friday
135,71656468.08834744
3507,71656468.08834744
2,7, 1, 7, 0, 1, 0.00,60.00,Saturday
135,47128537.174814485
3507,47128537.174814485
2,7, 1, 7, 0, 2, 0.00,60.00,Saturday
135,47128537.174814485
3507,47128537.174814485
2,7, 1, 7, 0, 3, 0.00,60.00,Saturday
135,47128537.174814485
3507,47128537.174814485
2,7, 1, 7, 0, 4, 0.00,60.00,Saturday
135,47128537.174814485
3507,47128537.174814485
2,7, 1, 7, 0, 5, 0.00,60.00,Saturday
135,47128537.174814485
3507,47128537.174814485
2,7, 1, 7, 0, 6, 0.00,60.00,Saturday
135,76540730.09561014
3507,76540730.09561014
2,7, 1, 7, 0, 7, 0.00,60.00,Saturday
135,262767239.94601452
3507,262767239.94601458
2,7, 1, 7, 0, 8, 0.00,60.00,Saturday
135,314704918.3309377
3507,313403703.4706272
2,7, 1, 7, 0, 9, 0.00,60.00,Saturday
135,248290379.95037392
3507,237582074.6897182
2,7, 1, 7, 0,10, 0.00,60.00,Saturday
135,193270883.07504922
3507,165873970.7508193
2,7, 1, 7, 0,11, 0.00,60.00,Saturday
135,174754077.94787782
3507,136639538.90463817
2,7, 1, 7, 0,12, 0.00,60.00,Saturday
135,172459670.4058323
3507,130517707.49630877
2,7, 1, 7, 0,13, 0.00,60.00,Saturday
135,149240674.6017704
3507,107222753.27327944
2,7, 1, 7, 0,14, 0.00,60.00,Saturday
135,138410912.4127513
3507,100456554.53599258
2,7, 1, 7, 0,15, 0.00,60.00,Saturday
135,130748315.44957873
3507,104679504.09285851
2,7, 1, 7, 0,16, 0.00,60.00,Saturday
135,133984023.47532433
3507,123610286.46121494
2,7, 1, 7, 0,17, 0.00,60.00,Saturday
135,164864562.53471053
3507,164329949.25919718
2,7, 1, 7, 0,18, 0.00,60.00,Saturday
135,70752698.46639754
3507,70752698.46639757
2,7, 1, 7, 0,19, 0.00,60.00,Saturday
135,63080094.40527983
3507,63080094.40527983
2,7, 1, 7, 0,20, 0.00,60.00,Saturday
135,49585825.174814485
3507,49585825.174814485
2,7, 1, 7, 0,21, 0.00,60.00,Saturday
135,49585825.174814485
3507,49585825.174814485
2,7, 1, 7, 0,22, 0.00,60.00,Saturday
135,49585825.174814485
3507,49585825.174814485
2,7, 1, 7, 0,23, 0.00,60.00,Saturday
135,49585825.174814485
3507,49585825.174814485
2,7, 1, 7, 0,24, 0.00,60.00,Saturday
135,49585825.174814485
3507,49585825.174814485
2,8, 1, 8, 0, 1, 0.00,60.00,Sunday
135,51912910.42953163
3507,51912910.42953163
2,8, 1, 8, 0, 2, 0.00,60.00,Sunday
135,53609355.84064345
3507,53609355.84064345
2,8, 1, 8, 0, 3, 0.00,60.00,Sunday
135,57239795.49359302
3507,57239795.49359302
2,8, 1, 8, 0, 4, 0.00,60.00,Sunday
135,55899052.14189633
3507,55899052.14189634
2,8, 1, 8, 0, 5, 0.00,60.00,Sunday
135,60026484.22573038
3507,60026484.22573038
2,8, 1, 8, 0, 6, 0.00,60.00,Sunday
135,62134064.325116456
3507,62134064.325116456
2,8, 1, 8, 0, 7, 0.00,60.00,Sunday
135,75361375.22031261
3507,75361375.2203126
2,8, 1, 8, 0, 8, 0.00,60.00,Sunday
135,63572341.387470216
3507,62824178.49188192
2,8, 1, 8, 0, 9, 0.00,60.00,Sunday
135,55282417.52271502
3507,48664097.8497863
2,8, 1, 8, 0,10, 0.00,60.00,Sunday
135,52330253.707470864
3507,37340092.455544665
2,8, 1, 8, 0,11, 0.00,60.00,Sunday
135,51271662.01873667
3507,40909534.35820487
2,8, 1, 8, 0,12, 0.00,60.00,Sunday
135,55249015.89201765
3507,46892259.21606784
2,8, 1, 8, 0,13, 0.00,60.00,Sunday
135,57591334.89458083
3507,49882768.9252857
2,8, 1, 8, 0,14, 0.00,60.00,Sunday
135,62946804.48082635
3507,56709760.47873737
2,8, 1, 8, 0,15, 0.00,60.00,Sunday
135,61431171.9673847
3507,56938941.50377441
2,8, 1, 8, 0,16, 0.00,60.00,Sunday
135,64391786.88477242
3507,62179681.18159119
2,8, 1, 8, 0,17, 0.00,60.00,Sunday
135,68656627.77176017
3507,68540126.26649304
2,8, 1, 8, 0,18, 0.00,60.00,Sunday
135,79506095.9153352
3507,79506095.9153352
2,8, 1, 8, 0,19, 0.00,60.00,Sunday
135,69710975.20787716
3507,69710975.20787717
2,8, 1, 8, 0,20, 0.00,60.00,Sunday
135,66301957.27196348
3507,66301957.27196348
2,8, 1, 8, 0,21, 0.00,60.00,Sunday
135,60525820.4966259
3507,60525820.4966259
2,8, 1, 8, 0,22, 0.00,60.00,Sunday
135,55881525.77770876
3507,55881525.777708754
2,8, 1, 8, 0,23, 0.00,60.00,Sunday
135,63720119.37590389
3507,63720119.37590389
2,8, 1, 8, 0,24, 0.00,60.00,Sunday
135,64223784.46017826
3507,64223784.460178256
2,9, 1, 9, 0, 1, 0.00,60.00,Monday
135,76854889.42234789
3507,76854889.42234789
2,9, 1, 9, 0, 2, 0.00,60.00,Monday
135,72835839.58650807
3507,72835839.58650807
2,9, 1, 9, 0, 3, 0.00,60.00,Monday
135,74000247.71337104
3507,74000247.71337104
2,9, 1, 9, 0, 4, 0.00,60.00,Monday
135,70256761.57899708
3507,70256761.57899706
2,9, 1, 9, 0, 5, 0.00,60.00,Monday
135,69539459.68097633
3507,69539459.68097633
2,9, 1, 9, 0, 6, 0.00,60.00,Monday
135,128772071.5702579
3507,128772071.5702579
2,9, 1, 9, 0, 7, 0.00,60.00,Monday
135,452306791.2189696
3507,452306791.21896964
2,9, 1, 9, 0, 8, 0.00,60.00,Monday
135,534736481.9239121
3507,533522991.9874059
2,9, 1, 9, 0, 9, 0.00,60.00,Monday
135,436377437.9426209
3507,428118413.37874174
2,9, 1, 9, 0,10, 0.00,60.00,Monday
135,370632336.588287
3507,356845695.9252583
2,9, 1, 9, 0,11, 0.00,60.00,Monday
135,334209834.6458184
3507,318461351.5005993
2,9, 1, 9, 0,12, 0.00,60.00,Monday
135,305625633.3744336
3507,285298330.70998114
2,9, 1, 9, 0,13, 0.00,60.00,Monday
135,333837974.51650137
3507,317074281.0825112
2,9, 1, 9, 0,14, 0.00,60.00,Monday
135,267237155.3279789
3507,249076153.6197627
2,9, 1, 9, 0,15, 0.00,60.00,Monday
135,263467874.61413503
3507,255733850.65307692
2,9, 1, 9, 0,16, 0.00,60.00,Monday
135,275122599.84251887
3507,272376467.895871
2,9, 1, 9, 0,17, 0.00,60.00,Monday
135,292517945.2454366
3507,292293589.1935107
2,9, 1, 9, 0,18, 0.00,60.00,Monday
135,315851601.88580465
3507,315851601.8858046
2,9, 1, 9, 0,19, 0.00,60.00,Monday
135,290540748.05241793
3507,290540748.05241793
2,9, 1, 9, 0,20, 0.00,60.00,Monday
135,280949958.1685852
3507,280949958.1685852
2,9, 1, 9, 0,21, 0.00,60.00,Monday
135,278103809.87897533
3507,278103809.8789753
2,9, 1, 9, 0,22, 0.00,60.00,Monday
135,280086295.82035977
3507,280086295.8203597
2,9, 1, 9, 0,23, 0.00,60.00,Monday
135,75193223.90247798
3507,75193223.90247798
2,9, 1, 9, 0,24, 0.00,60.00,Monday
135,71656468.08834744
3507,71656468.08834744
2,10, 1,10, 0, 1, 0.00,60.00,Tuesday
135,58379131.21819277
3507,58379131.21819277
2,10, 1,10, 0, 2, 0.00,60.00,Tuesday
135,58379131.21819277
3507,58379131.21819277
2,10, 1,10, 0, 3, 0.00,60.00,Tuesday
135,58379131.21819277
3507,58379131.21819277
2,10, 1,10, 0, 4, 0.00,60.00,Tuesday
135,58379131.21819277
3507,58379131.21819277
2,10, 1,10, 0, 5, 0.00,60.00,Tuesday
135,64628899.506277755
3507,64628899.506277755
2,10, 1,10, 0, 6, 0.00,60.00,Tuesday
135,157627187.258062
3507,157627187.258062
2,10, 1,10, 0, 7, 0.00,60.00,Tuesday
135,361706544.49540234
3507,361706544.49540234
2,10, 1,10, 0, 8, 0.00,60.00,Tuesday
135,439786297.79564214
3507,437859391.1116707
2,10, 1,10, 0, 9, 0.00,60.00,Tuesday
135,343566238.5818731
3507,328965778.9572473
2,10, 1,10, 0,10, 0.00,60.00,Tuesday
135,283941206.0693499
3507,260992177.5237754
2,10, 1,10, 0,11, 0.00,60.00,Tuesday
135,276063937.46663815
3507,253632085.5730331
2,10, 1,10, 0,12, 0.00,60.00,Tuesday
135,249795319.14930958
3507,206818228.83702627
2,10, 1,10, 0,13, 0.00,60.00,Tuesday
135,277254441.53630537
3507,234849031.91397434
2,10, 1,10, 0,14, 0.00,60.00,Tuesday
135,232268576.88306165
3507,195938390.5070996
2,10, 1,10, 0,15, 0.00,60.00,Tuesday
135,221725696.16378918
3507,196027947.56538773
2,10, 1,10, 0,16, 0.00,60.00,Tuesday
135,224464068.77598023
3507,212515972.64955384
2,10, 1,10, 0,17, 0.00,60.00,Tuesday
135,252778818.23569757
3507,251782211.70838314
2,10, 1,10, 0,18, 0.00,60.00,Tuesday
135,261550061.2194454
3507,261550061.21944538
2,10, 1,10, 0,19, 0.00,60.00,Tuesday
135,243325551.74474
3507,243325551.74474
2,10, 1,10, 0,20, 0.00,60.00,Tuesday
135,234598787.58947664
3507,234598787.58947664
2,10, 1,10, 0,21, 0.00,60.00,Tuesday
135,237239669.32009214
3507,237239669.3200921
2,10, 1,10, 0,22, 0.00,60.00,Tuesday
135,243201290.07965857
3507,243201290.07965857
2,10, 1,10, 0,23, 0.00,60.00,Tuesday
135,75193223.90247798
3507,75193223.90247798
2,10, 1,10, 0,24, 0.00,60.00,Tuesday
135,71656468.08834744
3507,71656468.08834744
2,11, 1,11, 0, 1, 0.00,60.00,Wednesday
135,58379131.21819277
3507,58379131.21819277
2,11, 1,11, 0, 2, 0.00,60.00,Wednesday
135,58379131.21819277
3507,58379131.21819277
2,11, 1,11, 0, 3, 0.00,60.00,Wednesday
135,58379131.21819277
3507,58379131.21819277
2,11, 1,11, 0, 4, 0.00,60.00,Wednesday
135,58379131.21819277
3507,58379131.21819277
2,11, 1,11, 0, 5, 0.00,60.00,Wednesday
135,58379131.21819277
3507,58379131.21819277
2,11, 1,11, 0, 6, 0.00,60.00,Wednesday
135,143518963.56654876
3507,143518963.56654876
2,11, 1,11, 0, 7, 0.00,60.00,Wednesday
135,329539790.8644921
3507,329539790.86449206
2,11, 1,11, 0, 8, 0.00,60.00,Wednesday
135,410548688.5104712
3507,408800192.2418159
2,11, 1,11, 0, 9, 0.00,60.00,Wednesday
135,329668250.72949517
3507,315193409.69114125
2,11, 1,11, 0,10, 0.00,60.00,Wednesday
135,272132243.5387481
3507,247132178.2464744
2,11, 1,11, 0,11, 0.00,60.00,Wednesday
135,267164460.70476845
3507,246179092.85883042
2,11, 1,11, 0,12, 0.00,60.00,Wednesday
135,271403889.1040607
3507,249846544.98790437
2,11, 1,11, 0,13, 0.00,60.00,Wednesday
135,290084765.6839057
3507,256185087.64454418
2,11, 1,11, 0,14, 0.00,60.00,Wednesday
135,243046672.841547
3507,203751656.23142987
2,11, 1,11, 0,15, 0.00,60.00,Wednesday
135,228559871.6201376
3507,200817611.87210378
2,11, 1,11, 0,16, 0.00,60.00,Wednesday
135,233423598.19884118
3507,221441563.93005866
2,11, 1,11, 0,17, 0.00,60.00,Wednesday
135,260195770.89928058
3507,259118334.25026348
2,11, 1,11, 0,18, 0.00,60.00,Wednesday
135,271253388.4605191
3507,271253388.460519
2,11, 1,11, 0,19, 0.00,60.00,Wednesday
135,256221902.04647535
3507,256221902.04647535
2,11, 1,11, 0,20, 0.00,60.00,Wednesday
135,244121278.57444778
3507,244121278.57444778
2,11, 1,11, 0,21, 0.00,60.00,Wednesday
135,238814118.99547565
3507,238814118.9954756
2,11, 1,11, 0,22, 0.00,60.00,Wednesday
135,234998288.9516838
3507,234998288.95168382
2,11, 1,11, 0,23, 0.00,60.00,Wednesday
135,75193223.90247798
3507,75193223.90247798
2,11, 1,11, 0,24, 0.00,60.00,Wednesday
135,71656468.08834744
3507,71656468.08834744
2,12, 1,12, 0, 1, 0.00,60.00,Thursday
135,58379131.21819277
3507,58379131.21819277
2,12, 1,12, 0, 2, 0.00,60.00,Thursday
135,58379131.21819277
3507,58379131.21819277
2,12, 1,12, 0, 3, 0.00,60.00,Thursday
135,58379131.21819277
3507,58379131.21819277
2,12, 1,12, 0, 4, 0.00,60.00,Thursday
135,58379131.21819277
3507,58379131.21819277
2,12, 1,12, 0, 5, 0.00,60.00,Thursday
135,58379131.21819277
3507,58379131.21819277
2,12, 1,12, 0, 6, 0.00,60.00,Thursday
135,59241253.20484784
3507,59241253.20484784
2,12, 1,12, 0, 7, 0.00,60.00,Thursday
135,256295420.38734335
3507,256295420.3873434
2,12, 1,12, 0, 8, 0.00,60.00,Thursday
135,349790194.8194838
3507,349068334.3899298
2,12, 1,12, 0, 9, 0.00,60.00,Thursday
135,312674337.74778897
3507,306288146.3565527
2,12, 1,12, 0,10, 0.00,60.00,Thursday
135,256588338.20589954
3507,239917948.40001345
2,12, 1,12, 0,11, 0.00,60.00,Thursday
135,225548215.1462347
3507,201292689.22822812
2,12, 1,12, 0,12, 0.00,60.00,Thursday
135,217585807.12145442
3507,193064149.10430527
2,12, 1,12, 0,13, 0.00,60.00,Thursday
135,242237089.2563544
3507,211876761.96076044
2,12, 1,12, 0,14, 0.00,60.00,Thursday
135,203166923.16471303
3507,177733342.14966962
2,12, 1,12, 0,15, 0.00,60.00,Thursday
135,199121991.43763041
3507,181738770.97653887
2,12, 1,12, 0,16, 0.00,60.00,Thursday
135,199708259.0974703
3507,188174652.85825598
2,12, 1,12, 0,17, 0.00,60.00,Thursday
135,219991074.9601404
3507,218539586.60007066
2,12, 1,12, 0,18, 0.00,60.00,Thursday
135,218468677.79122758
3507,218468677.79122755
2,12, 1,12, 0,19, 0.00,60.00,Thursday
135,176302963.63814953
3507,176302963.63814956
2,12, 1,12, 0,20, 0.00,60.00,Thursday
135,171132415.37949502
3507,171132415.379495
2,12, 1,12, 0,21, 0.00,60.00,Thursday
135,169430208.90451464
3507,169430208.90451464
2,12, 1,12, 0,22, 0.00,60.00,Thursday
135,175358700.5821909
3507,175358700.5821909
2,12, 1,12, 0,23, 0.00,60.00,Thursday
135,75193223.90247798
3507,75193223.90247798
2,12, 1,12, 0,24, 0.00,60.00,Thursday
135,71656468.08834744
3507,71656468.08834744
2,13, 1,13, 0, 1, 0.00,60.00,Friday
135,58379131.21819277
3507,58379131.21819277
2,13, 1,13, 0, 2, 0.00,60.00,Friday
135,58379131.21819277
3507,58379131.21819277
2,13, 1,13, 0, 3, 0.00,60.00,Friday
135,58379131.21819277
3507,58379131.21819277
2,13, 1,13, 0, 4, 0.00,60.00,Friday
135,58379131.21819277
3507,58379131.21819277
2,13, 1,13, 0, 5, 0.00,60.00,Friday
135,58379131.21819277
3507,58379131.21819277
2,13, 1,13, 0, 6, 0.00,60.00,Friday
135,59241253.20484784
3507,59241253.20484784
2,13, 1,13, 0, 7, 0.00,60.00,Friday
135,180194846.1157968
3507,180194846.1157968
2,13, 1,13, 0, 8, 0.00,60.00,Friday
135,292148753.46768045
3507,291093363.6242511
2,13, 1,13, 0, 9, 0.00,60.00,Friday
135,266435196.11207557
3507,258990992.3350261
2,13, 1,13, 0,10, 0.00,60.00,Friday
135,228862377.48670715
3507,215141352.96783936
2,13, 1,13, 0,11, 0.00,60.00,Friday
135,213557144.25900292
3507,197676369.01628566
2,13, 1,13, 0,12, 0.00,60.00,Friday
135,208425064.57523233
3507,190835965.69678304
2,13, 1,13, 0,13, 0.00,60.00,Friday
135,237537232.1698598
3507,220587146.23685542
2,13, 1,13, 0,14, 0.00,60.00,Friday
135,205893446.08399075
3507,195847486.01001823
2,13, 1,13, 0,15, 0.00,60.00,Friday
135,203057397.90374744
3507,191880823.63629958
2,13, 1,13, 0,16, 0.00,60.00,Friday
135,219078719.16394517
3507,213123815.10999846
2,13, 1,13, 0,17, 0.00,60.00,Friday
135,251218652.3028475
3507,250641578.08703333
2,13, 1,13, 0,18, 0.00,60.00,Friday
135,251007883.6529324
3507,251007883.65293235
2,13, 1,13, 0,19, 0.00,60.00,Friday
135,214044838.92267102
3507,214044838.92267102
2,13, 1,13, 0,20, 0.00,60.00,Friday
135,200173600.71356326
3507,200173600.7135632
2,13, 1,13, 0,21, 0.00,60.00,Friday
135,200959012.86865258
3507,200959012.86865258
2,13, 1,13, 0,22, 0.00,60.00,Friday
135,210586712.82897502
3507,210586712.828975
2,13, 1,13, 0,23, 0.00,60.00,Friday
135,75193223.90247798
3507,75193223.90247798
2,13, 1,13, 0,24, 0.00,60.00,Friday
135,71656468.08834744
3507,71656468.08834744
2,14, 1,14, 0, 1, 0.00,60.00,Saturday
135,47128537.174814485
3507,47128537.174814485
2,14, 1,14, 0, 2, 0.00,60.00,Saturday
135,47128537.174814485
3507,47128537.174814485
2,14, 1,14, 0, 3, 0.00,60.00,Saturday
135,47128537.174814485
3507,47128537.174814485
2,14, 1,14, 0, 4, 0.00,60.00,Saturday
135,55182486.8755873
3507,55182486.8755873
2,14, 1,14, 0, 5, 0.00,60.00,Saturday
135,64490227.53381117
3507,64490227.53381117
2,14, 1,14, 0, 6, 0.00,60.00,Saturday
135,155435105.35596853
3507,155435105.3559685
2,14, 1,14, 0, 7, 0.00,60.00,Saturday
135,327123888.4607106
3507,327123888.4607106
2,14, 1,14, 0, 8, 0.00,60.00,Saturday
135,390451843.43236715
3507,389088050.5325581
2,14, 1,14, 0, 9, 0.00,60.00,Saturday
135,317170633.8167377
3507,308548405.1187239
2,14, 1,14, 0,10, 0.00,60.00,Saturday
135,296786611.60493636
3507,286010628.7353314
2,14, 1,14, 0,11, 0.00,60.00,Saturday
135,292882169.8964912
3507,285660093.1627923
2,14, 1,14, 0,12, 0.00,60.00,Saturday
135,293831157.1846821
3507,286060249.84312236
2,14, 1,14, 0,13, 0.00,60.00,Saturday
135,278528974.7753866
3507,270178886.0457668
2,14, 1,14, 0,14, 0.00,60.00,Saturday
135,278365337.2162321
3507,271473442.41582906
2,14, 1,14, 0,15, 0.00,60.00,Saturday
135,277111076.14967895
3507,272060743.53966653
2,14, 1,14, 0,16, 0.00,60.00,Saturday
135,276172054.06093955
3507,272225567.7968705
2,14, 1,14, 0,17, 0.00,60.00,Saturday
135,289066494.5682064
3507,288585280.1674888
2,14, 1,14, 0,18, 0.00,60.00,Saturday
135,70752698.46639754
3507,70752698.46639757
2,14, 1,14, 0,19, 0.00,60.00,Saturday
135,63080094.40527983
3507,63080094.40527983
2,14, 1,14, 0,20, 0.00,60.00,Saturday
135,49585825.174814485
3507,49585825.174814485
2,14, 1,14, 0,21, 0.00,60.00,Saturday
135,56411372.135302804
3507,56411372.135302804
2,14, 1,14, 0,22, 0.00,60.00,Saturday
135,61016005.32873917
3507,61016005.328739166
2,14, 1,14, 0,23, 0.00,60.00,Saturday
135,64053789.09472972
3507,64053789.09472972
2,14, 1,14, 0,24, 0.00,60.00,Saturday
135,62891029.348526396
3507,62891029.34852639
2,15, 1,15, 0, 1, 0.00,60.00,Sunday
135,64653670.542489216
3507,64653670.542489216
2,15, 1,15, 0, 2, 0.00,60.00,Sunday
135,64007210.56997407
3507,64007210.56997407
2,15, 1,15, 0, 3, 0.00,60.00,Sunday
135,61979459.824939124
3507,61979459.824939124
2,15, 1,15, 0, 4, 0.00,60.00,Sunday
135,60990700.334518634
3507,60990700.334518634
2,15, 1,15, 0, 5, 0.00,60.00,Sunday
135,62771682.23224726
3507,62771682.232247256
2,15, 1,15, 0, 6, 0.00,60.00,Sunday
135,60215161.426345155
3507,60215161.426345155
2,15, 1,15, 0, 7, 0.00,60.00,Sunday
135,69453335.17119169
3507,69453335.17119169
2,15, 1,15, 0, 8, 0.00,60.00,Sunday
135,63388540.88694433
3507,62988995.54388421
2,15, 1,15, 0, 9, 0.00,60.00,Sunday
135,62324352.777239576
3507,59226800.53980367
2,15, 1,15, 0,10, 0.00,60.00,Sunday
135,55066973.63241224
3507,50317099.39795107
2,15, 1,15, 0,11, 0.00,60.00,Sunday
135,48643374.72976277
3507,42363652.54653975
2,15, 1,15, 0,12, 0.00,60.00,Sunday
135,48597866.50725062
3507,39109387.507074535
2,15, 1,15, 0,13, 0.00,60.00,Sunday
135,48557126.855142154
3507,29334105.691354167
2,15, 1,15, 0,14, 0.00,60.00,Sunday
135,48557126.855142154
3507,31671312.643462114
2,15, 1,15, 0,15, 0.00,60.00,Sunday
135,48558554.50263985
3507,34443824.253364585
2,15, 1,15, 0,16, 0.00,60.00,Sunday
135,48571260.397683844
3507,36022806.63305496
2,15, 1,15, 0,17, 0.00,60.00,Sunday
135,60896246.28029617
3507,59347377.93158263
2,15, 1,15, 0,18, 0.00,60.00,Sunday
135,76259569.10609213
3507,76259569.10609214
2,15, 1,15, 0,19, 0.00,60.00,Sunday
135,72562433.37657784
3507,72562433.37657784